12   
Iteration 0 Energy -232.04379869
C        1.2090000000    0.6980000000    0.0000000000
C        0.0000000000    1.3960000000    0.0000000000
C       -1.2090000000    0.6980000000    0.0000000000
C       -1.2090000000   -0.6980000000    0.0000000000
C        0.0000000000   -1.3960000000    0.0000000000
C        1.2090000000   -0.6980000000    0.0000000000
H        2.1590000000    1.2470000000    0.0000000000
H        0.0000000000    2.4930000000    0.0000000000
H       -2.1590000000    1.2470000000    0.0000000000
H       -2.1590000000   -1.2470000000    0.0000000000
H        0.0000000000   -2.4930000000    0.0000000000
H        2.1590000000   -1.2470000000    0.0000000000
12   
Iteration 1 Energy -232.04438411
C        1.2134715146    0.7005972866   -0.0000000000
C        0.0000000000    1.4013061324   -0.0000000000
C       -1.2134715146    0.7005972866   -0.0000000000
C       -1.2134715146   -0.7005972866    0.0000000000
C        0.0000000000   -1.4013061324    0.0000000000
C        1.2134715146   -0.7005972866   -0.0000000000
H        2.1537628258    1.2435300012   -0.0000000000
H       -0.0000000000    2.4870900485   -0.0000000000
H       -2.1537628258    1.2435300012    0.0000000000
H       -2.1537628258   -1.2435300012   -0.0000000000
H        0.0000000000   -2.4870900485   -0.0000000000
H        2.1537628258   -1.2435300012   -0.0000000000
12   
Iteration 2 Energy -232.04438552
C        1.2131541408    0.7003678234   -0.0000000000
C        0.0000000000    1.4006576894   -0.0000000000
C       -1.2131541408    0.7003678234   -0.0000000000
C       -1.2131541408   -0.7003678234    0.0000000000
C        0.0000000000   -1.4006576894    0.0000000000
C        1.2131541408   -0.7003678234   -0.0000000000
H        2.1536864634    1.2434370986   -0.0000000000
H       -0.0000000000    2.4867081334   -0.0000000000
H       -2.1536864634    1.2434370986    0.0000000000
H       -2.1536864634   -1.2434370986   -0.0000000000
H        0.0000000000   -2.4867081334   -0.0000000000
H        2.1536864634   -1.2434370986   -0.0000000000
12   
Iteration 3 Energy -232.04438534
C        1.2128489516    0.7003805447   -0.0000000000
C        0.0000000000    1.4011628594   -0.0000000000
C       -1.2128489516    0.7003805447   -0.0000000000
C       -1.2128489516   -0.7003805447    0.0000000000
C        0.0000000000   -1.4011628594    0.0000000000
C        1.2128489516   -0.7003805447   -0.0000000000
H        2.1535103184    1.2432741118   -0.0000000000
H       -0.0000000000    2.4872504108   -0.0000000000
H       -2.1535103184    1.2432741118    0.0000000000
H       -2.1535103184   -1.2432741118   -0.0000000000
H        0.0000000000   -2.4872504108   -0.0000000000
H        2.1535103184   -1.2432741118   -0.0000000000
